Variables = "X" "Y" "Z" "MC1" "MC2" "MC3" "MC4" "MC5" 
ZONE F=FEPOINT,ET=TRIANGLE,N=4002,E=8000SOLUTIONTIME=0 
-2.761783683E-01 -5.160166354E-01 -3.086999721E-01  1.138628181E-03  6.536631037E-03  1.415220424E-02  3.534159016E-03  1.474541824E-02 
-2.344342861E-01 -5.575036580E-01 -3.143628758E-01  5.532005649E-04  4.904910936E-03  1.385651534E-02  2.551059841E-03  1.960572751E-03 
-2.911732869E-01 -5.641858313E-01 -3.213986004E-01  8.247657652E-05  2.539693259E-04  9.137664918E-03  9.664626173E-03  5.678857564E-02 
-2.188271569E-01 -5.088223627E-01 -2.980247745E-01  1.352693014E-03  8.475854344E-03  1.450127446E-02  2.732110203E-03  5.753385196E-02 
-3.338484962E-01 -5.213463511E-01 -3.179749070E-01  5.518997832E-04  2.845535632E-03  1.283720123E-02  4.435108683E-03  1.738067793E-02 
-2.599412688E-01 -4.653625519E-01 -2.900217319E-01  1.715525643E-03  8.856319262E-03  1.163459313E-02  7.988505305E-05  6.100614012E-02 
-3.182332298E-01 -4.711724644E-01 -3.032434922E-01  1.581761588E-03  8.186649492E-03  1.453996789E-02  3.438158815E-03  3.651821574E-02 
-2.489554264E-01 -6.034675234E-01 -3.244889239E-01  8.060775227E-04  3.162125241E-03  7.340990714E-03  1.227580202E-02  5.819423035E-02 
-1.783655098E-01 -5.489525931E-01 -3.061290850E-01  1.463140083E-03  8.562830818E-03  1.495269230E-02  3.763933873E-03  2.350941308E-02 
-1.934793698E-01 -5.954682712E-01 -3.195750698E-01  1.135871573E-03  4.198250851E-03  1.289998023E-02  3.820726636E-03  2.653865753E-02 
-3.479103868E-01 -5.687764524E-01 -3.262718571E-01  1.026036867E-03  7.151564519E-03  5.296152768E-03  1.085116108E-02  6.134440536E-02 
-3.047909605E-01 -6.093827744E-01 -3.275149923E-01  1.616279297E-03  1.083215740E-02  1.499067534E-03  2.024700887E-02  7.355007332E-02 
-2.022945161E-01 -4.579401264E-01 -2.763991565E-01  1.619682472E-03  8.777103943E-03  1.025784001E-02  3.639754792E-04  6.424016307E-02 
-1.624598481E-01 -5.000000000E-01 -2.870651895E-01  1.362221907E-03  9.058247122E-03  1.339378351E-02  2.891327295E-03  5.039216522E-02 
-3.764459850E-01 -4.751688522E-01 -3.147445041E-01  1.044907812E-03  5.026595300E-03  1.377886440E-02  3.427421429E-03  9.962817519E-04 
-3.911100134E-01 -5.246245573E-01 -3.247170442E-01  4.670967717E-04  4.002838661E-03  8.089715187E-03  8.396116152E-03  5.641534003E-02 
-3.012228727E-01 -4.188199684E-01 -2.829743984E-01  1.970341883E-03  9.462600629E-03  1.267580671E-02  3.315075424E-03  5.061082389E-02 
-2.076586278E-01 -6.391075403E-01 -3.267944842E-01  6.572439289E-04  4.245357103E-03  5.680867630E-03  8.742542258E-03  5.360739365E-02 
-1.380311067E-01 -5.888269498E-01 -3.143628758E-01  5.532005649E-04  4.904910936E-03  1.394818109E-02  2.705980480E-03  4.491439472E-03 
-2.622725063E-01 -6.463075352E-01 -3.280968154E-01  2.128994545E-03  1.341665168E-02  8.983308910E-04  2.552864717E-02  6.862636090E-02 
-2.426455746E-01 -4.128133083E-01 -2.665956955E-01  1.836295624E-03  8.618260692E-03  9.367965023E-03  2.332316671E-04  6.762384515E-02 
-3.600588918E-01 -4.232746131E-01 -2.986908657E-01  1.885746230E-03  9.168436599E-03  1.449187570E-02  3.202818714E-03  3.411511377E-02 
-1.220433921E-01 -5.402693141E-01 -2.980247745E-01  1.352693014E-03  8.475854344E-03  1.418762283E-02  2.729993334E-03  4.225647418E-02 
-3.603220727E-01 -6.130165248E-01 -3.279038984E-01  2.297741068E-03  1.783243439E-02  4.650788374E-03  2.858017134E-02  8.685116104E-02 
-1.533001397E-01 -6.345478102E-01 -3.244889239E-01  8.060775227E-04  3.162125241E-03  8.382336168E-03  7.812503089E-03  4.483267057E-02 
-4.039317005E-01 -5.711141873E-01 -3.281085386E-01  2.020890551E-03  1.537198144E-02  1.903513853E-03  1.602133583E-02  8.414203431E-02 
-1.459354171E-01 -4.491430307E-01 -2.635497870E-01  9.613631869E-04  7.585297680E-03  1.034072892E-02  2.775110010E-03  5.404613068E-02 
-3.169499246E-01 -6.512449572E-01 -3.270840860E-01  2.443029667E-03  1.985950582E-02  7.335958644E-03  3.583121822E-02  7.496669156E-02 
-1.850313991E-01 -4.054572058E-01 -2.509584322E-01  1.614406833E-03  7.790871924E-03  7.793937814E-03  6.104770413E-05  6.423971530E-02 
-1.055107514E-01 -4.893870779E-01 -2.763991565E-01  1.619682472E-03  8.777103943E-03  1.167735368E-02  2.805341590E-03  4.748486812E-02 
-4.338110527E-01 -4.772055607E-01 -3.232354380E-01  2.098463002E-05  1.682904488E-03  9.939736807E-03  5.647207482E-03  3.597661000E-02 
-2.207968846E-01 -6.795429369E-01 -3.277515363E-01  8.148147022E-04  1.301233267E-02  3.228023299E-03  1.366841143E-02  6.411467956E-02 
-4.183839196E-01 -4.260166094E-01 -3.122297769E-01  1.375721403E-03  6.369193648E-03  1.436162233E-02  2.770561920E-03  2.368635551E-02 
-2.830297868E-01 -3.649424458E-01 -2.586634980E-01  1.993890838E-03  8.843698724E-03  9.164596484E-03  5.045890229E-04  5.475784608E-02 
-3.421367140E-01 -3.695757739E-01 -2.777117690E-01  2.133305360E-03  9.779715765E-03  1.214468972E-02  3.107434301E-03  3.665366283E-02 
-7.987397482E-02 -5.797997993E-01 -3.086999721E-01  1.138628181E-03  6.536631037E-03  1.415220424E-02  3.534159016E-03  1.141849062E-02 
-1.677071228E-01 -6.770336909E-01 -3.280968154E-01  2.128994545E-03  1.341665168E-02  9.290359159E-04  1.402117230E-02  6.763768061E-02 
-4.472135955E-01 -5.257311121E-01 -3.279404186E-01  1.707593730E-03  1.305347064E-02  5.332197088E-04  1.280111888E-02  7.809375247E-02 
-9.605597375E-02 -6.275832894E-01 -3.213986004E-01  8.247657652E-05  2.539693259E-04  1.055296760E-02  6.160570880E-03  4.141632283E-02 
-2.743133809E-01 -6.857420664E-01 -3.254568327E-01  2.383096902E-03  1.979492737E-02  8.325729457E-03  4.227767194E-02  6.665071786E-02 
-2.245132546E-01 -3.590273472E-01 -2.401510026E-01  1.786344834E-03  7.716938029E-03  7.148366955E-03  1.088966758E-05  6.181005520E-02 
-6.323634102E-02 -5.292758573E-01 -2.900217319E-01  1.715525643E-03  8.856319262E-03  1.323891221E-02  3.162031765E-03  3.948048104E-02 
-4.148636114E-01 -6.142422973E-01 -3.250681226E-01  2.432488850E-03  2.230748014E-02  9.275505877E-03  2.212525626E-02  9.112941905E-02 
-3.710491842E-01 -6.537564837E-01 -3.232476600E-01  2.171563804E-03  2.229382142E-02  1.113111761E-02  4.327837857E-02  6.564889776E-02 
-4.010812712E-01 -3.727645332E-01 -2.956669808E-01  2.061809029E-03  9.673489751E-03  1.432301352E-02  2.757319155E-03  3.125077111E-02 
-1.116051410E-01 -6.721526522E-01 -3.275149923E-01  1.616279297E-03  1.083215740E-02  1.738490115E-03  1.281226991E-02  6.839696189E-02 
-1.289862465E-01 -3.969788475E-01 -2.371886823E-01  4.716646746E-04  5.747199951E-03  6.747210427E-03  1.312730432E-03  4.691902357E-02 
-8.862821967E-02 -4.367804976E-01 -2.509584322E-01  1.614406833E-03  7.790871924E-03  8.549864564E-03  3.259980787E-03  4.184405147E-02 
-3.276220564E-01 -6.895439813E-01 -3.206770358E-01  1.752507117E-03  2.129337883E-02  1.170087394E-02  5.044543211E-02  5.502359923E-02 
-4.585230636E-01 -5.711141873E-01 -3.262559324E-01  2.551323946E-03  2.167432673E-02  8.067600548E-03  1.979528721E-02  9.274737788E-02 
-2.328267068E-01 -7.165669224E-01 -3.229044513E-01  2.197130877E-03  1.640822585E-02  8.658989327E-03  4.088766793E-02  5.339511949E-02 
-4.754074811E-01 -4.269425186E-01 -3.221794528E-01  2.626453412E-04  2.908423690E-04  1.043194516E-02  1.566039956E-03  1.471547568E-02 
-1.811448865E-01 -7.160143453E-01 -3.254568327E-01  2.383096902E-03  1.979492737E-02  7.988875084E-03  1.829676394E-02  7.378568039E-02 
-1.672560579E-01 -3.520227220E-01 -2.235451628E-01  1.566616590E-03  6.888090372E-03  5.851957712E-03  2.920058598E-04  5.762579269E-02 
-4.895625660E-01 -4.772055607E-01 -3.276503174E-01  1.445853093E-03  1.130476992E-02  2.262706689E-03  8.703028583E-03  7.139749976E-02 
-4.634118113E-02 -4.765964722E-01 -2.665956955E-01  1.836295624E-03  8.618260692E-03  1.036163998E-02  3.350083903E-03  4.036751913E-02 
-3.229256727E-01 -3.147747344E-01 -2.534922150E-01  2.093897259E-03  8.990104021E-03  9.126838382E-03  2.942800375E-03  3.924676245E-02 
-3.635058954E-02 -6.180092806E-01 -3.179749070E-01  5.518997831E-04  2.845535632E-03  1.283720123E-02  4.435108683E-03  1.867097054E-02 
-4.590671417E-01 -3.743901799E-01 -3.108537523E-01  1.540514012E-03  6.998979395E-03  1.456945861E-02  2.002375694E-03  1.756548554E-02 
-2.639073540E-01 -3.102417013E-01 -2.322154803E-01  1.925973988E-03  7.999854480E-03  7.103192197E-03  5.018656725E-04  5.739448835E-02 
-1.949213477E-02 -5.682393303E-01 -3.032434922E-01  1.581761588E-03  8.186649492E-03  1.453996789E-02  3.438158815E-03  3.393205362E-02 
-3.821265574E-01 -3.181370405E-01 -2.748960801E-01  2.213381766E-03  9.917248677E-03  1.183320850E-02  2.571422665E-03  3.063089166E-02 
-1.263743061E-01 -7.131667292E-01 -3.270840860E-01  2.443029667E-03  1.985950582E-02  7.299324790E-03  1.891341322E-02  8.267603719E-02 
-2.850510028E-01 -7.216167265E-01 -3.172869710E-01  1.202713184E-03  1.820142797E-02  1.037390911E-02  5.533296906E-02  4.265768328E-02 
-5.285299513E-02 -6.646464104E-01 -3.262718571E-01  1.026036867E-03  7.151564519E-03  5.296152768E-03  1.085116108E-02  6.182583588E-02 
-5.014345942E-01 -5.246245573E-01 -3.269554951E-01  2.575391547E-03  2.082598265E-02  6.842096759E-03  1.562153217E-02  9.109877294E-02 
-4.239261262E-01 -6.537564837E-01 -3.162734139E-01  1.242707572E-03  2.032013239E-02  8.908452691E-03  2.352219492E-02  7.638500403E-02 
-3.801149576E-01 -6.908254082E-01 -3.131342873E-01  6.305779109E-04  1.806977796E-02  1.104785904E-02  5.262550619E-02  4.203599124E-02 
-2.057907275E-01 -3.046913872E-01 -2.126827418E-01  1.769701321E-03  7.274343736E-03  5.691628723E-03  5.800336981E-05  5.683060398E-02 
-2.481777656E-03 -5.158868343E-01 -2.829743984E-01  1.970341883E-03  9.462600629E-03  1.267580671E-02  3.315075424E-03  3.839932935E-02 
-4.677493592E-01 -6.130165248E-01 -3.186712839E-01  1.767256256E-03  2.183315127E-02  9.666216557E-03  2.297769682E-02  8.034505303E-02 
-7.160077118E-02 -3.831030087E-01 -2.235451628E-01  1.566616590E-03  6.888090372E-03  6.006970228E-03  3.644894838E-03  4.289208642E-02 
-4.407269727E-01 -3.202068889E-01 -2.946069624E-01  2.119350945E-03  9.827691513E-03  1.423789717E-02  2.119532162E-03  2.427927537E-02 
-1.118161842E-01 -3.441348294E-01 -2.098260826E-01  4.599903829E-05  4.457035721E-03  5.071123694E-03  1.817259141E-03  4.963992064E-02 
-6.881539244E-02 -7.077327868E-01 -3.279038984E-01  2.297741068E-03  1.783243439E-02  4.691522916E-03  1.812898054E-02  8.475052983E-02 
-2.939594141E-02 -4.224248053E-01 -2.401510026E-01  1.786344834E-03  7.716938029E-03  7.469743025E-03  3.641677852E-03  3.633519056E-02 
-3.368276624E-01 -7.241819959E-01 -3.092317638E-01  1.060793088E-05  1.516811626E-02  9.897974962E-03  5.744599054E-02  2.589306712E-02 
-1.935445641E-01 -7.513489708E-01 -3.172869710E-01  1.202713184E-03  1.820142797E-02  8.014240129E-03  1.851821149E-02  6.285890036E-02 
-2.437186932E-01 -7.500890096E-01 -3.130648031E-01  4.324019930E-03  1.276975985E-02  8.151118803E-03  4.697480991E-02  2.257131783E-02 
-5.110141014E-01 -5.687764524E-01 -3.203800896E-01  2.167525129E-03  2.269510866E-02  9.994218193E-03  2.007380884E-02  8.528364303E-02 
-5.303690125E-01 -4.260166094E-01 -3.274462044E-01  1.298941199E-03  1.037668816E-02  3.119669852E-03  3.905551019E-03  5.733453728E-02 
-1.402519716E-01 -7.504242123E-01 -3.206770358E-01  1.752507117E-03  2.129337883E-02  1.001841849E-02  2.122649097E-02  7.550725315E-02 
-5.153038747E-01 -3.743901799E-01 -3.217975605E-01  3.595123054E-04  1.701242839E-04  1.074563444E-02  3.612854709E-04  3.592058220E-03 
-1.491966343E-01 -2.982957855E-01 -1.961255732E-01  1.619739022E-03  6.800350715E-03  4.841222579E-03  3.454389372E-04  5.485812313E-02 
-3.027137469E-01 -2.595973579E-01 -2.280103765E-01  2.007690068E-03  8.194607024E-03  7.238530047E-03  1.452768619E-03  4.281912612E-02 
 2.525395565E-02 -6.056890748E-01 -3.147445041E-01  1.044907812E-03  5.026595300E-03  1.377886440E-02  3.427421429E-03  2.266832951E-04 
-3.618033989E-01 -2.628655561E-01 -2.516953893E-01  2.128779760E-03  9.044267093E-03  8.958948715E-03  2.128787959E-03  2.403043052E-02 
-5.429866843E-01 -4.751688522E-01 -3.273067749E-01  2.560782548E-03  2.014774466E-02  5.966963539E-03  9.792247824E-03  8.786252611E-02 
 1.446811988E-02 -4.616053753E-01 -2.586634980E-01  1.993890838E-03  8.843698724E-03  9.615811372E-03  3.400095321E-03  3.450565139E-02 
 8.048069706E-03 -6.543188805E-01 -3.247170442E-01  4.670967717E-04  4.002838661E-03  8.089715187E-03  8.396116152E-03  5.709214875E-02 
-2.944989448E-01 -7.538959046E-01 -3.045813856E-01  6.138881003E-04  1.098602574E-02  7.362557348E-03  5.940706986E-02  1.211843258E-02 
-2.441330726E-01 -2.554235520E-01 -2.056737979E-01  1.931114574E-03  7.791757293E-03  5.896043336E-03  7.682162241E-04  5.339795942E-02 
 4.249918718E-02 -5.540736618E-01 -2.986908657E-01  1.885746230E-03  9.168436599E-03  1.449187570E-02  3.202818714E-03  3.029086949E-02 
-4.979257685E-01 -3.209058684E-01 -3.108537523E-01  1.540514012E-03  6.998979395E-03  1.456009846E-02  1.079594053E-03  1.404933637E-02 
-8.408332394E-02 -7.469973439E-01 -3.232476600E-01  2.171563803E-03  2.229382142E-02  1.004128319E-02  2.255302962E-02  8.503442772E-02 
-4.311976919E-01 -6.895439813E-01 -3.027441631E-01  6.604085445E-04  1.224604833E-02  7.823113364E-03  4.844099691E-02  1.706209312E-02 
-4.206499057E-01 -2.651142004E-01 -2.748960801E-01  2.213381766E-03  9.917248677E-03  1.182966915E-02  1.855152818E-03  2.178260206E-02 
-4.749713410E-01 -6.512449572E-01 -3.060892786E-01  6.162288211E-05  1.465686929E-02  4.726241947E-03  2.131618572E-02  5.261706519E-02 
-8.904886401E-03 -6.994661797E-01 -3.281085386E-01  2.020890551E-03  1.537198144E-02  1.903513853E-03  1.602133583E-02  8.370782482E-02 
-3.875909966E-01 -7.241819959E-01 -2.986558722E-01  1.229761150E-03  9.522783528E-03  6.571936821E-03  5.333980489E-02  9.766189630E-03 
-5.531188938E-01 -5.213463511E-01 -3.214665243E-01  2.430743306E-03  2.309700103E-02  1.010686673E-02  1.472908654E-02  8.666571365E-02 
-5.463125083E-02 -3.290219411E-01 -1.961255732E-01  1.619739022E-03  6.800350715E-03  4.841222579E-03  3.454389372E-04  4.082956831E-02 
-1.867331162E-01 -2.504788297E-01 -1.861764689E-01  1.894305102E-03  7.817795171E-03  5.269180454E-03  2.496453576E-04  5.403455155E-02 
-1.260490803E-02 -3.674612650E-01 -2.126827418E-01  1.769701321E-03  7.274343736E-03  5.439241318E-03  3.746892434E-03  3.002949252E-02 
-5.183719497E-01 -6.093827744E-01 -3.086748043E-01  4.968371349E-04  1.658657861E-02  6.121216746E-03  2.010308275E-02  5.850784620E-02 
-9.462723627E-02 -2.912326872E-01 -1.833060578E-01  2.141150336E-04  4.206882466E-03  4.384718885E-03  2.023483417E-03  4.717631808E-02 
-2.048742433E-01 -7.830167354E-01 -3.045813856E-01  6.138881003E-04  1.098602574E-02  2.807841365E-03  1.533142282E-02  3.532351400E-02 
 5.956322656E-02 -5.000959966E-01 -2.777117690E-01  2.133305360E-03  9.779715765E-03  1.214468972E-02  3.107434301E-03  3.289437884E-02 
-2.534776807E-01 -7.801240850E-01 -2.992358213E-01  6.083671259E-03  5.753261608E-03  3.933556103E-03  4.580141617E-02  2.008751007E-03 
-3.446272614E-01 -7.551778086E-01 -2.938657529E-01  1.710470084E-03  6.722863865E-03  5.118584047E-03  5.548867737E-02  1.744265459E-03 
-1.531641941E-01 -7.838578743E-01 -3.092317638E-01  1.060793089E-05  1.516811626E-02  5.813430635E-03  1.910451214E-02  4.943043428E-02 
-4.784610673E-01 -2.662603809E-01 -2.956669808E-01  2.061809029E-03  9.673489751E-03  1.430831701E-02  1.365111928E-03  1.653035769E-02 
 3.115003765E-02 -4.061116594E-01 -2.322154803E-01  1.925973988E-03  7.999854480E-03  6.925978990E-03  3.385587447E-03  2.849073181E-02 
-2.541085174E-02 -7.407831696E-01 -3.250681226E-01  2.432488850E-03  2.230748014E-02  9.275505877E-03  2.212525626E-02  9.080258401E-02 
-5.690589106E-01 -3.727645332E-01 -3.274462044E-01  1.298941199E-03  1.037668816E-02  2.145481165E-03  2.086538291E-03  3.390957778E-02 
-5.825875249E-01 -4.232746131E-01 -3.274114686E-01  2.550598475E-03  1.989275155E-02  5.677197956E-03  2.546930809E-03  7.604945357E-02 
-9.853752638E-02 -7.823154617E-01 -3.131342873E-01  6.305779109E-04  1.806977796E-02  7.607197834E-03  2.204861578E-02  6.280453172E-02 
-5.608187820E-01 -5.641858313E-01 -3.105043021E-01  9.484001777E-04  1.795686277E-02  7.230819370E-03  1.636319496E-02  6.317899082E-02 
-3.404354510E-01 -2.076778863E-01 -2.280103765E-01  2.007690068E-03  8.194607024E-03  6.666388255E-03  1.454913875E-03  2.594597884E-02 
 7.046612305E-02 -6.410551475E-01 -3.232354380E-01  2.098463001E-05  1.682904488E-03  9.939736807E-03  5.647207482E-03  3.651477578E-02 
-2.818106643E-01 -2.047474324E-01 -2.032506857E-01  1.993890290E-03  8.005946462E-03  6.090994095E-03  1.993878416E-03  4.854683830E-02 
-1.310776713E-01 -2.449078809E-01 -1.705327758E-01  1.841666950E-03  7.866311102E-03  4.957393332E-03  2.579479977E-05  5.388614445E-02 
-5.529554553E-01 -3.202068889E-01 -3.221794528E-01  2.626453412E-04  2.908423691E-04  1.042000699E-02  1.035739729E-03  6.075761894E-03 
-3.027044301E-01 -7.826462885E-01 -2.884399645E-01  2.064813074E-03  3.332340398E-03  2.808432737E-03  5.515616477E-02  1.093984482E-02 
 8.807342090E-02 -5.905745746E-01 -3.122297769E-01  1.375721403E-03  6.369193648E-03  1.436162233E-02  2.770561920E-03  2.255023035E-02 
-3.991580831E-01 -2.098498229E-01 -2.534922150E-01  2.093897259E-03  8.990104021E-03  9.128074443E-03  1.245317793E-03  1.778836021E-02 
 5.278640450E-02 -6.881909602E-01 -3.279404186E-01  1.707593730E-03  1.305347064E-02  5.332197088E-04  1.280111888E-02  7.845076166E-02 
-5.934665895E-01 -4.711724644E-01 -3.219915958E-01  2.559548088E-03  2.323704734E-02  1.022335658E-02  7.115857235E-03  8.161799097E-02 
-4.803224891E-01 -6.857420664E-01 -2.896288785E-01  1.744204737E-03  7.799706378E-03  4.420786907E-04  1.680831413E-02  2.808451665E-02 
-4.368015485E-01 -7.216167265E-01 -2.856453534E-01  2.159708390E-03  5.500381058E-03  4.642468060E-03  4.490726263E-02  4.333280501E-03 
 7.623241043E-02 -4.444690575E-01 -2.534922150E-01  2.093897259E-03  8.990104021E-03  9.126838382E-03  2.942800375E-03  2.776739661E-02 
-2.239903209E-01 -2.011558411E-01 -1.809385573E-01  2.071577484E-03  8.519680939E-03  5.664753883E-03  1.405556865E-03  5.193111815E-02 
-5.236447981E-01 -6.463075352E-01 -2.928713965E-01  1.287741306E-03  9.685450176E-03  1.957094124E-03  1.679600593E-02  2.749970299E-02 
 1.053760693E-01 -5.373224984E-01 -2.956669808E-01  2.061809029E-03  9.673489751E-03  1.432301352E-02  2.757319155E-03  2.936567374E-02 
-3.935855779E-01 -7.538959046E-01 -2.809808593E-01  2.483762559E-03  2.911091507E-03  3.218687925E-03  4.750534078E-02  1.139805810E-02 
-4.130497923E-02 -7.780776306E-01 -3.162734139E-01  1.242707572E-03  2.032013239E-02  8.908452691E-03  2.352219492E-02  7.363623800E-02 
-5.344536137E-01 -2.662603809E-01 -3.122297769E-01  1.375721403E-03  6.369193648E-03  1.433761159E-02  2.052431102E-05  4.819113673E-03 
-4.572135071E-01 -2.111861565E-01 -2.777117690E-01  2.133305360E-03  9.779715765E-03  1.213608800E-02  1.157111024E-03  1.424574017E-02 
 3.842502324E-03 -3.124006018E-01 -1.861764689E-01  1.894305102E-03  7.817795171E-03  4.591131846E-03  3.619801652E-03  3.328210850E-02 
 3.526045406E-02 -7.315541778E-01 -3.262559324E-01  2.551323946E-03  2.167432673E-02  8.067600548E-03  1.979528721E-02  9.302160008E-02 
-3.790917689E-02 -2.751801598E-01 -1.705327758E-01  1.841666950E-03  7.866311102E-03  4.957393332E-03  2.579479977E-05  4.939647340E-02 
-2.151349180E-01 -8.110993478E-01 -2.884399645E-01  2.064813074E-03  3.332340398E-03  2.775002023E-03  1.090290444E-02  8.649206594E-03 
-1.650730675E-01 -8.135185027E-01 -2.938657529E-01  1.710470084E-03  6.722863865E-03  4.552184265E-04  1.455493964E-02  1.847354461E-02 
-2.621370350E-01 -8.067748371E-01 -2.824650516E-01  6.839507480E-03  4.102485311E-04  4.582405753E-04  3.977309454E-02  1.686591815E-02 
-6.017215678E-01 -5.160166354E-01 -3.115921441E-01  1.240810074E-03  1.876192680E-02  8.084106569E-03  1.001724844E-02  6.303044413E-02 
-1.675888986E-01 -1.970125661E-01 -1.623549544E-01  2.182734084E-03  9.469910657E-03  5.946751178E-03  9.412714764E-04  5.351380385E-02 
 4.737360766E-02 -3.501398140E-01 -2.056737979E-01  1.931114574E-03  7.791757293E-03  5.223878761E-03  3.138230643E-03  2.493743175E-02 
-7.760890225E-02 -2.388556408E-01 -1.592504570E-01  2.295205147E-04  5.267045397E-03  4.864806857E-03  1.904101176E-03  4.821456361E-02 
-3.511116658E-01 -7.826462885E-01 -2.757123976E-01  2.689114445E-03  1.860569904E-04  1.436245132E-03  4.792602289E-02  1.838978708E-02 
-5.662170787E-01 -6.034675234E-01 -2.953308393E-01  8.567949662E-04  1.109001100E-02  3.192333502E-03  1.474182403E-02  3.268687052E-02 
-1.120957941E-01 -8.136958135E-01 -2.986558722E-01  1.229761150E-03  9.522783528E-03  1.293532680E-03  1.791670215E-02  3.017026493E-02 
 1.221506183E-01 -4.819866272E-01 -2.748960801E-01  2.213381766E-03  9.917248677E-03  1.183320850E-02  2.571422665E-03  2.696548664E-02 
-6.197045464E-01 -3.695757739E-01 -3.273067749E-01  2.560782548E-03  2.014774466E-02  6.055991195E-03  5.858530639E-03  7.117605859E-02 
 9.231306719E-02 -3.879493503E-01 -2.280103765E-01  2.007690068E-03  8.194607024E-03  6.663335268E-03  2.561310898E-03  2.209467546E-02 
 1.809510796E-02 -7.708769615E-01 -3.186712839E-01  1.767256256E-03  2.183315127E-02  9.666216557E-03  2.297769682E-02  8.153937148E-02 
-3.183635019E-01 -1.532541312E-01 -2.056737979E-01  1.931114574E-03  7.791757293E-03  6.150583195E-03  3.208029430E-03  3.469125558E-02 
-5.138223955E-01 -2.116373065E-01 -2.986908657E-01  1.885746230E-03  9.168436599E-03  1.446946769E-02  5.638027990E-04  7.730522052E-03 
-6.051326108E-01 -3.181370405E-01 -3.276503174E-01  1.445853093E-03  1.130476992E-02  1.277106956E-03  3.890758655E-03  2.472143267E-02 
-3.097401522E-01 -8.080158260E-01 -2.699303292E-01  2.771799978E-03  3.168663908E-03  1.296671294E-03  4.656354721E-02  2.373785075E-02 
-6.315029044E-01 -4.188199684E-01 -3.219915958E-01  2.559548088E-03  2.323704734E-02  1.048469332E-02  2.373932693E-03  7.832194847E-02 
-3.766092490E-01 -1.551208506E-01 -2.322154803E-01  1.925973988E-03  7.999854480E-03  6.934568452E-03  4.725144372E-04  1.140361801E-02 
-5.645752234E-02 -8.113044433E-01 -3.027441631E-01  6.604085445E-04  1.224604833E-02  3.078745124E-03  2.039015543E-02  4.150754551E-02 
-4.839743901E-01 -7.165669224E-01 -2.704450011E-01  3.027287043E-03  3.350314160E-03  4.072762287E-03  1.604027445E-02  2.107523769E-03 
 1.336622155E-01 -6.248412593E-01 -3.221794528E-01  2.626453412E-04  2.908423691E-04  1.043194516E-02  1.566039956E-03  1.505675703E-02 
-2.605273892E-01 -1.508668809E-01 -1.809385573E-01  2.071577484E-03  8.519680939E-03  5.719934564E-03  2.779133326E-03  4.683675391E-02 
-1.131081786E-01 -1.924311271E-01 -1.482570552E-01  2.222504343E-03  1.008851821E-02  6.245524045E-03  6.085443027E-04  5.506076496E-02 
 1.155700448E-01 -6.738250648E-01 -3.276503174E-01  1.445853093E-03  1.130476992E-02  2.262706689E-03  8.703028583E-03  7.158217852E-02 
-6.074668547E-01 -5.575036580E-01 -2.969813079E-01  5.207226107E-04  1.200296210E-02  4.175752655E-03  1.037087944E-02  3.502484802E-02 
-4.408912578E-01 -7.500890096E-01 -2.661224350E-01  3.098153879E-03  2.108206427E-03  1.130300652E-03  2.387236519E-02  8.688354413E-03 
-5.270170537E-01 -6.795429369E-01 -2.740968460E-01  2.749291767E-03  4.661017371E-03  2.945507559E-03  1.469382459E-02  2.780096853E-03 
 1.513320929E-01 -5.727209137E-01 -3.108537523E-01  1.540514012E-03  6.998979395E-03  1.456945861E-02  2.002375694E-03  1.688112111E-02 
-5.879044457E-01 -2.651142004E-01 -3.232354380E-01  2.098463001E-05  1.682904488E-03  9.406315989E-03  2.723277716E-03  1.437864230E-02 
-4.345419052E-01 -1.564039053E-01 -2.586634980E-01  1.993890838E-03  8.843698724E-03  9.619704943E-03  5.883771127E-04  1.002858944E-02 
-3.982313876E-01 -7.801240850E-01 -2.612114961E-01  2.948448437E-03  1.035888105E-03  2.144123244E-03  2.377743502E-02  1.211154181E-02 
 9.730253046E-02 -7.191660420E-01 -3.269554951E-01  2.575391547E-03  2.082598265E-02  6.842096759E-03  1.562153217E-02  9.124585946E-02 
-6.405166030E-01 -4.653625519E-01 -3.119527853E-01  1.341858110E-03  1.902581107E-02  8.724740684E-03  1.341737925E-03  6.084548434E-02 
-2.037513433E-01 -1.480340161E-01 -1.595386828E-01  2.319651355E-03  1.007025898E-02  6.309821978E-03  2.319572657E-03  5.113847672E-02 
-2.243547392E-01 -8.357592285E-01 -2.699303292E-01  2.771799978E-03  3.168663908E-03  7.942932706E-03  6.906086172E-03  1.194624562E-02 
-5.695034010E-01 -6.391075403E-01 -2.770086374E-01  2.333351179E-03  5.903878356E-03  1.654910933E-03  1.221263285E-02  1.630044522E-03 
-1.759726416E-01 -8.395524071E-01 -2.757123976E-01  2.689114445E-03  1.860569904E-04  5.290041067E-03  9.838590132E-03  6.429519601E-03 
 1.381966011E-01 -4.253254042E-01 -2.516953893E-01  2.128779760E-03  9.044267093E-03  8.958948715E-03  2.128787959E-03  2.130582185E-02 
 1.978118617E-02 -2.578927971E-01 -1.623549544E-01  2.182734084E-03  9.469910657E-03  5.017756561E-03  3.378903679E-03  2.970484175E-02 
-2.697520318E-01 -8.302113872E-01 -2.637330870E-01  6.678254105E-03  2.070394300E-03  6.285375572E-03  3.212201443E-02  2.901881336E-02 
-2.160173991E-02 -2.221633713E-01 -1.482570552E-01  2.222504343E-03  1.008851821E-02  6.245524045E-03  6.085443027E-04  5.310392979E-02 
 6.297553936E-02 -2.943967013E-01 -1.809385573E-01  2.071577484E-03  8.519680939E-03  4.686310961E-03  2.729485937E-03  1.977632284E-02 
 1.467705286E-03 -8.060493874E-01 -3.060892786E-01  6.162288210E-05  1.465686929E-02  4.726241947E-03  2.131618572E-02  5.147331259E-02 
-1.247114732E-01 -8.412583970E-01 -2.809808593E-01  2.483762559E-03  2.911091507E-03  3.272351835E-03  1.276943035E-02  1.877968195E-03 
-3.563918422E-01 -8.067748371E-01 -2.558039088E-01  2.611694114E-03  1.874759253E-04  2.919829752E-03  2.281069014E-02  1.448377057E-02 
 1.683427238E-01 -5.181056297E-01 -2.946069624E-01  2.119350945E-03  9.827691513E-03  1.423789717E-02  2.119532162E-03  2.300776346E-02 
-6.092967329E-02 -1.875222524E-01 -1.388977176E-01  4.208356683E-05  7.626564921E-03  6.512478315E-03  1.461983146E-03  5.001402686E-02 
-5.682406400E-01 -2.111861565E-01 -3.147445041E-01  1.044907812E-03  5.026595300E-03  1.375070471E-02  1.341390516E-03  5.819285651E-03 
-4.914044469E-01 -1.570574881E-01 -2.829743984E-01  1.970341883E-03  9.462600629E-03  1.266871458E-02  6.211015860E-04  6.511494590E-03 
 7.910068186E-02 -7.605163685E-01 -3.203800896E-01  2.167525129E-03  2.269510866E-02  9.994218193E-03  2.007380884E-02  8.551321708E-02 
-1.485868671E-01 -1.448363992E-01 -1.425004163E-01  2.565692030E-03  1.193435746E-02  7.546904952E-03  1.889412362E-03  5.398217804E-02 
-6.468331514E-01 -5.088223627E-01 -2.978092493E-01  3.366297716E-04  1.244766314E-02  4.961892802E-03  3.735989917E-03  3.471442032E-02 
-6.108876318E-01 -5.954682712E-01 -2.791263041E-01  1.894176523E-03  6.930279905E-03  3.291660923E-04  8.574625070E-03  5.610158156E-03 
 1.076420954E-01 -3.312883048E-01 -2.032506857E-01  1.993890290E-03  8.005946462E-03  5.171108295E-03  1.993878416E-03  1.722777367E-02 
-7.077579378E-02 -8.405457036E-01 -2.856453534E-01  2.159708390E-03  5.500381058E-03  1.327010284E-03  1.527320322E-02  1.098658840E-02 
-3.156960271E-01 -8.302113872E-01 -2.499962512E-01  2.149080698E-03  9.166272634E-03  8.467300670E-03  2.123956626E-02  1.012501642E-02 
-6.538994150E-01 -3.147747344E-01 -3.269554951E-01  2.575391547E-03  2.082598265E-02  8.569023998E-03  6.004108301E-03  5.043556827E-02 
-3.533715614E-01 -1.015637957E-01 -2.126827418E-01  1.769701321E-03  7.274343736E-03  5.451965869E-03  1.863962835E-04  1.375383712E-02 
-4.777244719E-01 -7.513489708E-01 -2.479149525E-01  2.418204418E-03  1.622785440E-03  3.927237534E-03  1.390057263E-02  1.905543951E-02 
-2.959232295E-01 -1.001915319E-01 -1.861764689E-01  1.894305102E-03  7.817795171E-03  5.413773903E-03  3.853021904E-03  3.937440826E-02 
-6.667529826E-01 -3.649424458E-01 -3.214665243E-01  2.430743306E-03  2.309700103E-02  1.090762942E-02  1.315746192E-02  5.932858907E-02 
-5.219887064E-01 -7.160143453E-01 -2.520112754E-01  2.337550392E-03  9.403784385E-04  7.555954770E-03  8.528769062E-03  1.274390468E-02 
 1.844827052E-01 -4.617337045E-01 -2.748960801E-01  2.213381766E-03  9.917248677E-03  1.182966915E-02  1.855152818E-03  2.020843143E-02 
-4.336669630E-01 -7.830167354E-01 -2.432173319E-01  2.472325349E-03  1.912111748E-03  3.403562299E-03  1.415101233E-02  1.709415797E-02 
-6.381966011E-01 -2.628655561E-01 -3.279404186E-01  1.707593730E-03  1.305347064E-02  4.103716807E-04  6.046003434E-03  3.843442505E-02 
-9.547249685E-02 -1.413554821E-01 -1.303205839E-01  2.657170637E-03  1.301270748E-02  8.438712865E-03  1.410783573E-03  5.627056749E-02 
-2.391579025E-01 -9.850628304E-02 -1.623549544E-01  2.182734084E-03  9.469910657E-03  5.913520909E-03  3.604007354E-03  4.520396321E-02 
 6.118550887E-02 -7.976924078E-01 -3.086748043E-01  4.968371349E-04  1.658657861E-02  6.121216746E-03  2.010308275E-02  5.880079082E-02 
 1.533480666E-01 -3.681178768E-01 -2.280103765E-01  2.007690068E-03  8.194607024E-03  6.666388255E-03  1.454913875E-03  1.562818328E-02 
-4.108337092E-01 -1.025792421E-01 -2.401510026E-01  1.786344834E-03  7.716938029E-03  7.484136238E-03  5.785083835E-05  6.299718560E-03 
 1.786712642E-01 -6.563977607E-01 -3.274462044E-01  1.298941199E-03  1.037668816E-02  3.119669852E-03  3.905551019E-03  5.746416718E-02 
-5.659357232E-01 -6.770336909E-01 -2.554129470E-01  2.243084677E-03  1.613902434E-05  6.629010920E-03  7.127897655E-03  1.299253504E-02 
-6.767031739E-01 -4.128133083E-01 -3.115921441E-01  1.240810073E-03  1.876192680E-02  9.164773789E-03  9.044010835E-03  5.132096129E-02 
-1.448001709E-02 -8.371034609E-01 -2.896288785E-01  1.744204737E-03  7.799706378E-03  4.420786907E-04  1.680831413E-02  1.982579459E-02 
-5.464511188E-01 -1.570574881E-01 -3.032434922E-01  1.581761588E-03  8.186649492E-03  1.452245921E-02  2.832596477E-04  1.910854281E-03 